13
Energy:   -319.98966298
O  -3.436880210   0.746950730  -0.759387480
H  -3.772733150   1.346366340  -1.425822450
H  -4.220271020   0.390774620  -0.340258310
O   0.809735690   0.939279780  -1.075635280
H   1.235944200   1.503719160  -1.720605300
H   1.532451520   0.513905750  -0.614147890
O  -0.138358600  -1.085174920   1.223989270
H   0.812439350  -1.023526790   1.132258130
H  -0.270734760  -1.713474760   1.933882010
O   2.519895340  -0.547670520   0.556769150
H   3.091353760  -0.103643790   1.183273250
H   3.067678340  -1.234959120   0.177559420
Na  -1.236756430   0.268807540  -0.273252890
