
                                 *****************
                                 * O   R   C   A *
                                 *****************

           --- An Ab Initio, DFT and Semiempirical electronic structure package ---

                  #######################################################
                  #                        -***-                        #
                  #          Department of theory and spectroscopy      #
                  #               Directorship: Frank Neese             #
                  #        Max Planck Institute fuer Kohlenforschung    #
                  #                Kaiser Wilhelm Platz 1               #
                  #                 D-45470 Muelheim/Ruhr               #
                  #                      Germany                        #
                  #                                                     #
                  #                  All rights reserved                #
                  #                        -***-                        #
                  #######################################################


                         Program Version 4.2.0 -  RELEASE  -


 With contributions from (in alphabetic order):
   Daniel Aravena         : Magnetic Suceptibility
   Michael Atanasov       : Ab Initio Ligand Field Theory (pilot matlab implementation)
   Alexander A. Auer      : GIAO ZORA, VPT2
   Ute Becker             : Parallelization
   Giovanni Bistoni       : ED, misc. LED, open-shell LED, HFLED
   Martin Brehm           : Molecular dynamics
   Dmytro Bykov           : SCF Hessian
   Vijay G. Chilkuri      : MRCI spin determinant printing, contributions to CSF-ICE
   Dipayan Datta          : RHF DLPNO-CCSD density
   Achintya Kumar Dutta   : EOM-CC, STEOM-CC
   Dmitry Ganyushin       : Spin-Orbit,Spin-Spin,Magnetic field MRCI
   Miquel Garcia          : C-PCM Hessian, Gaussian charge scheme
   Yang Guo               : DLPNO-NEVPT2, CIM, IAO-localization
   Andreas Hansen         : Spin unrestricted coupled pair/coupled cluster methods
   Benjamin Helmich-Paris : CASSCF linear response (MC-RPA)
   Lee Huntington         : MR-EOM, pCC
   Robert Izsak           : Overlap fitted RIJCOSX, COSX-SCS-MP3, EOM
   Christian Kollmar      : KDIIS, OOCD, Brueckner-CCSD(T), CCSD density
   Simone Kossmann        : Meta GGA functionals, TD-DFT gradient, OOMP2, MP2 Hessian
   Martin Krupicka        : AUTO-CI
   Lucas Lang             : DCDCAS
   Dagmar Lenk            : GEPOL surface, SMD
   Dimitrios Liakos       : Extrapolation schemes; Compound Job, initial MDCI parallelization
   Dimitrios Manganas     : Further ROCIS development; embedding schemes
   Dimitrios Pantazis     : SARC Basis sets
   Taras Petrenko         : DFT Hessian,TD-DFT gradient, ASA, ECA, R-Raman, ABS, FL, XAS/XES, NRVS
   Peter Pinski           : DLPNO-MP2, DLPNO-MP2 Gradient
   Christoph Reimann      : Effective Core Potentials
   Marius Retegan         : Local ZFS, SOC
   Christoph Riplinger    : Optimizer, TS searches, QM/MM, DLPNO-CCSD(T), (RO)-DLPNO pert. Triples
   Tobias Risthaus        : Range-separated hybrids, TD-DFT gradient, RPA, STAB
   Michael Roemelt        : Original ROCIS implementation
   Masaaki Saitow         : Open-shell DLPNO-CCSD energy and density
   Barbara Sandhoefer     : DKH picture change effects
   Avijit Sen             : IP-ROCIS
   Kantharuban Sivalingam : CASSCF convergence, NEVPT2, FIC-MRCI
   Bernardo de Souza      : ESD, SOC TD-DFT
   Georgi Stoychev        : AutoAux, RI-MP2 NMR
   Willem Van den Heuvel  : Paramagnetic NMR
   Boris Wezisla          : Elementary symmetry handling
   Frank Wennmohs         : Technical directorship


 We gratefully acknowledge several colleagues who have allowed us to
 interface, adapt or use parts of their codes:
   Stefan Grimme, W. Hujo, H. Kruse,             : VdW corrections, initial TS optimization,
                  C. Bannwarth                     DFT functionals, gCP, sTDA/sTD-DF
   Ed Valeev, F. Pavosevic, A. Kumar             : LibInt (2-el integral package), F12 methods
   Garnet Chan, S. Sharma, J. Yang, R. Olivares  : DMRG
   Ulf Ekstrom                                   : XCFun DFT Library
   Mihaly Kallay                                 : mrcc  (arbitrary order and MRCC methods)
   Andreas Klamt, Michael Diedenhofen            : otool_cosmo (COSMO solvation model)
   Jiri Pittner, Ondrej Demel                    : Mk-CCSD
   Frank Weinhold                                : gennbo (NPA and NBO analysis)
   Christopher J. Cramer and Donald G. Truhlar   : smd solvation model
   Lars Goerigk                                  : TD-DFT with DH, B97 family of functionals
   V. Asgeirsson, H. Jonsson                     : NEB implementation
   FAccTs GmbH                                   : IRC, NEB, NEB-TS, Multilevel, MM, QM/MM, CI optimization
   S Lehtola, MJT Oliveira, MAL Marques          : LibXC Library


 Your calculation uses the libint2 library for the computation of 2-el integrals
 For citations please refer to: http://libint.valeyev.net

 Your ORCA version has been built with support for libXC version: 4.2.3
 For citations please refer to: https://tddft.org/programs/libxc/

 This ORCA versions uses:
   CBLAS   interface :  Fast vector & matrix operations
   LAPACKE interface :  Fast linear algebra routines
   SCALAPACK package :  Parallel linear algebra routines


Your calculation utilizes the atom-pairwise dispersion correction
with the Becke-Johnson damping scheme (D3BJ)
Cite in your paper:
S.Grimme, S.Ehrlich, L.Goerigk, J Comput Chem, (2011), 32, 1456–1465 
S.Grimme, J.Antony, S.Ehrlich and H.Krieg, J.Chem.Phys., 132, (2010), 154104 
   

----- Orbital basis set information -----
Your calculation utilizes the basis: def2-TZVP
   F. Weigend and R. Ahlrichs, Phys. Chem. Chem. Phys. 7, 3297 (2005).

================================================================================
                                        WARNINGS
                       Please study these warnings very carefully!
================================================================================


INFO   : the flag for use of LIBINT has been found!

================================================================================
                                       INPUT FILE
================================================================================
NAME = example-calculations-r.inp
|  1> ! wB97X-D3BJ def2-TZVP SP Grid4 TightSCF 
|  2> 
|  3> %pal
|  4>     nprocs 4
|  5> end
|  6> 
|  7> *xyz -1 1
|  8> C  0.836952 -0.019153  2.077471
|  9> O  0.816481 -1.184205  2.021337
| 10> O  0.972223  1.135893  2.019608
| 11> B  0.280544  0.058858  5.719612
| 12> H -0.405188 -0.985318  5.726270
| 13> H  0.785256  0.244548  6.839614
| 14> H -0.458235  1.042131  5.456374
| 15> H  1.173188 -0.032420  4.855721
| 16> O -1.509055  0.062905  3.235314
| 17> H -1.388147 -0.847564  3.541513
| 18> H -1.104019  0.524324  4.007167
| 19> *
| 20> 
| 21>                          ****END OF INPUT****
================================================================================

                       ****************************
                       * Single Point Calculation *
                       ****************************

---------------------------------
CARTESIAN COORDINATES (ANGSTROEM)
---------------------------------
  C      0.836952   -0.019153    2.077471
  O      0.816481   -1.184205    2.021337
  O      0.972223    1.135893    2.019608
  B      0.280544    0.058858    5.719612
  H     -0.405188   -0.985318    5.726270
  H      0.785256    0.244548    6.839614
  H     -0.458235    1.042131    5.456374
  H      1.173188   -0.032420    4.855721
  O     -1.509055    0.062905    3.235314
  H     -1.388147   -0.847564    3.541513
  H     -1.104019    0.524324    4.007167

----------------------------
CARTESIAN COORDINATES (A.U.)
----------------------------
  NO LB      ZA    FRAG     MASS         X           Y           Z
   0 C     6.0000    0    12.011    1.581610   -0.036194    3.925851
   1 O     8.0000    0    15.999    1.542925   -2.237823    3.819773
   2 O     8.0000    0    15.999    1.837235    2.146527    3.816506
   3 B     5.0000    0    10.810    0.530151    0.111226   10.808500
   4 H     1.0000    0     1.008   -0.765694   -1.861981   10.821082
   5 H     1.0000    0     1.008    1.483919    0.462129   12.924997
   6 H     1.0000    0     1.008   -0.865939    1.969342   10.311053
   7 H     1.0000    0     1.008    2.217004   -0.061265    9.175983
   8 O     8.0000    0    15.999   -2.851701    0.118873    6.113857
   9 H     1.0000    0     1.008   -2.623218   -1.601664    6.692490
  10 H     1.0000    0     1.008   -2.086294    0.990829    7.572448

--------------------------------
INTERNAL COORDINATES (ANGSTROEM)
--------------------------------
 C      0   0   0     0.000000000000     0.00000000     0.00000000
 O      1   0   0     1.166583151987     0.00000000     0.00000000
 O      1   2   0     1.164378646457   172.02565335     0.00000000
 B      1   2   3     3.685222739871    93.78698023   216.64723681
 H      4   1   2     1.249230252501    94.03994453   328.51357224
 H      4   1   2     1.242424830341   146.38286072   105.19185401
 H      4   1   2     1.257741804988    84.16795020   219.39744931
 H      4   1   2     1.245573219004    37.32442909    86.07036394
 O      1   2   3     2.617457310456    92.11277189   161.56324221
 H      9   1   2     0.968158237080    89.91336124    22.72915139
 H      9   1   2     0.986265029526    89.58563060   120.84539925

---------------------------
INTERNAL COORDINATES (A.U.)
---------------------------
 C      0   0   0     0.000000000000     0.00000000     0.00000000
 O      1   0   0     2.204522669703     0.00000000     0.00000000
 O      1   2   0     2.200356757990   172.02565335     0.00000000
 B      1   2   3     6.964061720856    93.78698023   216.64723681
 H      4   1   2     2.360703055436    94.03994453   328.51357224
 H      4   1   2     2.347842671328   146.38286072   105.19185401
 H      4   1   2     2.376787558611    84.16795020   219.39744931
 H      4   1   2     2.353792263665    37.32442909    86.07036394
 O      1   2   3     4.946277483993    92.11277189   161.56324221
 H      9   1   2     1.829553922381    89.91336124    22.72915139
 H      9   1   2     1.863770801268    89.58563060   120.84539925

---------------------
BASIS SET INFORMATION
---------------------
There are 4 groups of distinct atoms

 Group   1 Type C   : 11s6p2d1f contracted to 5s3p2d1f pattern {62111/411/11/1}
 Group   2 Type O   : 11s6p2d1f contracted to 5s3p2d1f pattern {62111/411/11/1}
 Group   3 Type B   : 11s6p2d1f contracted to 5s3p2d1f pattern {62111/411/11/1}
 Group   4 Type H   : 5s1p contracted to 3s1p pattern {311/1}

Atom   0C    basis set group =>   1
Atom   1O    basis set group =>   2
Atom   2O    basis set group =>   2
Atom   3B    basis set group =>   3
Atom   4H    basis set group =>   4
Atom   5H    basis set group =>   4
Atom   6H    basis set group =>   4
Atom   7H    basis set group =>   4
Atom   8O    basis set group =>   2
Atom   9H    basis set group =>   4
Atom  10H    basis set group =>   4


           ************************************************************
           *        Program running with 4 parallel MPI-processes     *
           *              working on a common directory               *
           ************************************************************
------------------------------------------------------------------------------
                           ORCA GTO INTEGRAL CALCULATION
------------------------------------------------------------------------------

                         BASIS SET STATISTICS AND STARTUP INFO

 # of primitive gaussian shells          ...  136
 # of primitive gaussian functions       ...  278
 # of contracted shells                  ...   79
 # of contracted basis functions         ...  191
 Highest angular momentum                ...    3
 Maximum contraction depth               ...    6
 Integral package used                   ... LIBINT
 Integral threshhold            Thresh   ...  2.500e-11
 Primitive cut-off              TCut     ...  2.500e-12


------------------------------ INTEGRAL EVALUATION ----------------------------


 * One electron integrals 
 Pre-screening matrix                    ... done
 Shell pair data                         ... done (   0.001 sec)



           ************************************************************
           *        Program running with 4 parallel MPI-processes     *
           *              working on a common directory               *
           ************************************************************
-------------------------------------------------------------------------------
                                 ORCA SCF
-------------------------------------------------------------------------------

------------
SCF SETTINGS
------------
Hamiltonian:
 Density Functional     Method          .... DFT(GTOs)
 Exchange Functional    Exchange        .... WB97X-V
 Correlation Functional Correlation     .... WB97X-V
 Gradients option       PostSCFGGA      .... off
 Hybrid DFT is turned on
   Fraction HF Exchange ScalHFX         ....  0.167000
   Scaling of DF-GGA-X  ScalDFX         ....  0.000000
   Scaling of DF-GGA-C  ScalDFC         ....  1.000000
   Scaling of DF-LDA-C  ScalLDAC        ....  1.000000
   Perturbative correction              ....  0.000000
   Density functional embedding theory  .... OFF
 Long-range corrected/Screened/Range-Separated Hybrid DFT is turned on
   Amount of maximum screened exact exchange              ....  0.833000
   Range separation parameter mu (erf(mu*r12)/r12)        ....  0.300000


General Settings:
 Integral files         IntName         .... example-calculations-r
 Hartree-Fock type      HFTyp           .... RHF
 Total Charge           Charge          ....   -1
 Multiplicity           Mult            ....    1
 Number of Electrons    NEL             ....   42
 Basis Dimension        Dim             ....  191
 Nuclear Repulsion      ENuc            ....    160.9702191594 Eh

Convergence Acceleration:
 DIIS                   CNVDIIS         .... on
   Start iteration      DIISMaxIt       ....    12
   Startup error        DIISStart       ....  0.200000
   # of expansion vecs  DIISMaxEq       ....     5
   Bias factor          DIISBfac        ....   1.050
   Max. coefficient     DIISMaxC        ....  10.000
 Newton-Raphson         CNVNR           .... off
 SOSCF                  CNVSOSCF        .... on
   Start iteration      SOSCFMaxIt      ....   150
   Startup grad/error   SOSCFStart      ....  0.003300
 Level Shifting         CNVShift        .... on
   Level shift para.    LevelShift      ....    0.2500
   Turn off err/grad.   ShiftErr        ....    0.0010
 Zerner damping         CNVZerner       .... off
 Static damping         CNVDamp         .... on
   Fraction old density DampFac         ....    0.7000
   Max. Damping (<1)    DampMax         ....    0.9800
   Min. Damping (>=0)   DampMin         ....    0.0000
   Turn off err/grad.   DampErr         ....    0.1000
 Fernandez-Rico         CNVRico         .... off

SCF Procedure:
 Maximum # iterations   MaxIter         ....   125
 SCF integral mode      SCFMode         .... Direct
   Integral package                     .... LIBINT
 Reset frequency        DirectResetFreq ....    20
 Integral Threshold     Thresh          ....  2.500e-11 Eh
 Primitive CutOff       TCut            ....  2.500e-12 Eh

Convergence Tolerance:
 Convergence Check Mode ConvCheckMode   .... Total+1el-Energy
 Convergence forced     ConvForced      .... 0
 Energy Change          TolE            ....  1.000e-08 Eh
 1-El. energy change                    ....  1.000e-05 Eh
 Orbital Gradient       TolG            ....  1.000e-05
 Orbital Rotation angle TolX            ....  1.000e-05
 DIIS Error             TolErr          ....  5.000e-07


Diagonalization of the overlap matrix:
Smallest eigenvalue                        ... 5.004e-04
Time for diagonalization                   ...    0.005 sec
Threshold for overlap eigenvalues          ... 1.000e-08
Number of eigenvalues below threshold      ... 0
Time for construction of square roots      ...    0.002 sec
Total time needed                          ...    0.008 sec

-------------------
DFT GRID GENERATION
-------------------

General Integration Accuracy     IntAcc      ...  4.670
Radial Grid Type                 RadialGrid  ... Gauss-Chebyshev
Angular Grid (max. acc.)         AngularGrid ... Lebedev-302
Angular grid pruning method      GridPruning ... 3 (G Style)
Weight generation scheme         WeightScheme... Becke
Basis function cutoff            BFCut       ...    1.0000e-11
Integration weight cutoff        WCut        ...    1.0000e-14
Grids for H and He will be reduced by one unit

# of grid points (after initial pruning)     ...  51340 (   0.0 sec)
# of grid points (after weights+screening)   ...  48377 (   0.0 sec)
nearest neighbour list constructed           ...    0.0 sec
Grid point re-assignment to atoms done       ...    0.0 sec
Grid point division into batches done        ...    0.2 sec
Reduced shell lists constructed in    0.2 sec

Total number of grid points                  ...    48377
Total number of batches                      ...      762
Average number of points per batch           ...       63
Average number of grid points per atom       ...     4398
Average number of shells per batch           ...    47.40 (59.99%)
Average number of basis functions per batch  ...   119.27 (62.45%)
Average number of large shells per batch     ...    36.28 (76.55%)
Average number of large basis fcns per batch ...    90.57 (75.94%)
Maximum spatial batch extension              ...  16.88, 18.35, 17.12 au
Average spatial batch extension              ...   0.85,  0.77,  0.83 au

Time for grid setup =    0.339 sec

------------------------------
INITIAL GUESS: MODEL POTENTIAL
------------------------------
Loading Hartree-Fock densities                     ... done
Calculating cut-offs                               ... done
Setting up the integral package                    ... done
Initializing the effective Hamiltonian             ... done
Starting the Coulomb interaction                   ... done (   0.0 sec)
Reading the grid                                   ... done
Mapping shells                                     ... done
Starting the XC term evaluation                    ... done (   0.2 sec)
  promolecular density results
     # of electrons  =     40.997231080
     EX              =    -23.870334370
     EC              =     -1.677910778
     EX+EC           =    -25.548245148
Transforming the Hamiltonian                       ... done (   0.0 sec)
Diagonalizing the Hamiltonian                      ... done (   0.0 sec)
Back transforming the eigenvectors                 ... done (   0.0 sec)
Now organizing SCF variables                       ... done
                      ------------------
                      INITIAL GUESS DONE (   0.6 sec)
                      ------------------
--------------
SCF ITERATIONS
--------------
ITER       Energy         Delta-E        Max-DP      RMS-DP      [F,P]     Damp
               ***  Starting incremental Fock matrix formation  ***
  0   -292.3826093428   0.000000000000 0.02947060  0.00068977  0.3417006 0.7000
  1   -292.4218113900  -0.039202047116 0.02153767  0.00060741  0.2348350 0.7000
                               ***Turning on DIIS***
  2   -292.4452985159  -0.023487125936 0.01843454  0.00043528  0.1613465 0.7000
  3   -292.4597158816  -0.014417365738 0.01518793  0.00029533  0.1113022 0.7000
  4   -292.4693311946  -0.009615312971 0.03778542  0.00072037  0.0772070 0.0000
                      *** Initiating the SOSCF procedure ***
                           *** Shutting down DIIS ***
                      *** Re-Reading the Fockian *** 
                      *** Removing any level shift *** 
ITER      Energy       Delta-E        Grad      Rot      Max-DP    RMS-DP
  5   -292.49127494  -0.0219437500  0.001223  0.001223  0.003212  0.000072
               *** Restarting incremental Fock matrix formation ***
  6   -292.49131113  -0.0000361881  0.000494  0.000934  0.002663  0.000051
  7   -292.49132125  -0.0000101165  0.000289  0.000718  0.002067  0.000039
  8   -292.49132238  -0.0000011281  0.000262  0.000210  0.000552  0.000012
  9   -292.49132330  -0.0000009245  0.000011  0.000018  0.000027  0.000001
 10   -292.49132330  -0.0000000010  0.000016  0.000011  0.000012  0.000000
                  ***Gradient check signals convergence***
              ***Rediagonalizing the Fockian in SOSCF/NRSCF***

               *****************************************************
               *                     SUCCESS                       *
               *           SCF CONVERGED AFTER  11 CYCLES          *
               *****************************************************

Setting up the final grid:

General Integration Accuracy     IntAcc      ...  5.010
Radial Grid Type                 RadialGrid  ... Gauss-Chebyshev
Angular Grid (max. acc.)         AngularGrid ... Lebedev-434
Angular grid pruning method      GridPruning ... 3 (G Style)
Weight generation scheme         WeightScheme... Becke
Basis function cutoff            BFCut       ...    1.0000e-11
Integration weight cutoff        WCut        ...    1.0000e-14
Grids for H and He will be reduced by one unit

# of grid points (after initial pruning)     ...  93966 (   0.0 sec)
# of grid points (after weights+screening)   ...  88370 (   0.0 sec)
nearest neighbour list constructed           ...    0.0 sec
Grid point re-assignment to atoms done       ...    0.0 sec
Grid point division into batches done        ...    0.6 sec
Reduced shell lists constructed in    0.7 sec

Total number of grid points                  ...    88370
Total number of batches                      ...     1387
Average number of points per batch           ...       63
Average number of grid points per atom       ...     8034
Average number of shells per batch           ...    45.84 (58.03%)
Average number of basis functions per batch  ...   114.88 (60.15%)
Average number of large shells per batch     ...    35.01 (76.37%)
Average number of large basis fcns per batch ...    87.22 (75.92%)
Maximum spatial batch extension              ...  19.91, 17.86, 16.25 au
Average spatial batch extension              ...   0.71,  0.67,  0.68 au

Final grid set up in    0.8 sec
Final integration                            ... done (   0.4 sec)
Change in XC energy                          ...     0.000028470
Integrated number of electrons               ...    42.000060943
Previous integrated no of electrons          ...    42.000142997

----------------
TOTAL SCF ENERGY
----------------

Total Energy       :         -292.49129484 Eh           -7959.09276 eV

Components:
Nuclear Repulsion  :          160.97021916 Eh            4380.22235 eV
Electronic Energy  :         -453.46151400 Eh          -12339.31511 eV
One Electron Energy:         -724.79070841 Eh          -19722.55785 eV
Two Electron Energy:          271.32919441 Eh            7383.24274 eV

Virial components:
Potential Energy   :         -583.74789458 Eh          -15884.58777 eV
Kinetic Energy     :          291.25659975 Eh            7925.49500 eV
Virial Ratio       :            2.00423920


DFT components:
N(Alpha)           :       21.000030471315 electrons
N(Beta)            :       21.000030471315 electrons
N(Total)           :       42.000060942629 electrons
E(X)               :      -24.482452596429 Eh       
E(C)               :       -1.727682361976 Eh       
E(XC)              :      -26.210134958405 Eh       
DFET-embed. en.    :        0.000000000000 Eh       

---------------
SCF CONVERGENCE
---------------

  Last Energy change         ...   -2.8398e-09  Tolerance :   1.0000e-08
  Last MAX-Density change    ...    4.5234e-06  Tolerance :   1.0000e-07
  Last RMS-Density change    ...    9.5869e-08  Tolerance :   5.0000e-09
  Last Orbital Gradient      ...    1.4156e-06  Tolerance :   1.0000e-05
  Last Orbital Rotation      ...    1.9099e-06  Tolerance :   1.0000e-05

             **** THE GBW FILE WAS UPDATED (example-calculations-r.gbw) ****
             **** DENSITY FILE WAS UPDATED (example-calculations-r.scfp) ****
             **** ENERGY FILE WAS UPDATED (example-calculations-r.en.tmp) ****
             **** THE GBW FILE WAS UPDATED (example-calculations-r.gbw) ****
             **** DENSITY FILE WAS UPDATED (example-calculations-r.scfp) ****
----------------
ORBITAL ENERGIES
----------------

  NO   OCC          E(Eh)            E(eV) 
   0   2.0000     -19.146211      -520.9949 
   1   2.0000     -19.145902      -520.9865 
   2   2.0000     -19.049249      -518.3564 
   3   2.0000     -10.319519      -280.8084 
   4   2.0000      -6.578705      -179.0157 
   5   2.0000      -1.147166       -31.2160 
   6   2.0000      -1.101595       -29.9759 
   7   2.0000      -0.974526       -26.5182 
   8   2.0000      -0.541536       -14.7360 
   9   2.0000      -0.493757       -13.4358 
  10   2.0000      -0.491309       -13.3692 
  11   2.0000      -0.490959       -13.3597 
  12   2.0000      -0.466656       -12.6984 
  13   2.0000      -0.421006       -11.4562 
  14   2.0000      -0.350756        -9.5445 
  15   2.0000      -0.334266        -9.0958 
  16   2.0000      -0.332962        -9.0603 
  17   2.0000      -0.266806        -7.2602 
  18   2.0000      -0.203494        -5.5373 
  19   2.0000      -0.199288        -5.4229 
  20   2.0000      -0.197030        -5.3615 
  21   0.0000       0.247432         6.7330 
  22   0.0000       0.271569         7.3898 
  23   0.0000       0.275745         7.5034 
  24   0.0000       0.296861         8.0780 
  25   0.0000       0.304974         8.2988 
  26   0.0000       0.325117         8.8469 
  27   0.0000       0.328226         8.9315 
  28   0.0000       0.368913        10.0386 
  29   0.0000       0.394783        10.7426 
  30   0.0000       0.408160        11.1066 
  31   0.0000       0.419728        11.4214 
  32   0.0000       0.443197        12.0600 
  33   0.0000       0.457556        12.4507 
  34   0.0000       0.481665        13.1068 
  35   0.0000       0.496087        13.4992 
  36   0.0000       0.503169        13.6919 
  37   0.0000       0.562986        15.3196 
  38   0.0000       0.577467        15.7137 
  39   0.0000       0.585939        15.9442 
  40   0.0000       0.630806        17.1651 
  41   0.0000       0.655976        17.8500 
  42   0.0000       0.665562        18.1109 
  43   0.0000       0.686520        18.6812 
  44   0.0000       0.707911        19.2632 
  45   0.0000       0.718965        19.5640 
  46   0.0000       0.723670        19.6921 
  47   0.0000       0.734539        19.9878 
  48   0.0000       0.752176        20.4677 
  49   0.0000       0.762962        20.7612 
  50   0.0000       0.805132        21.9088 
  51   0.0000       0.837801        22.7977 
  52   0.0000       0.859779        23.3958 
  53   0.0000       0.877671        23.8826 
  54   0.0000       0.904572        24.6147 
  55   0.0000       0.911669        24.8078 
  56   0.0000       0.948185        25.8014 
  57   0.0000       1.008580        27.4449 
  58   0.0000       1.031526        28.0692 
  59   0.0000       1.046947        28.4889 
  60   0.0000       1.074162        29.2294 
  61   0.0000       1.092104        29.7177 
  62   0.0000       1.116418        30.3793 
  63   0.0000       1.153168        31.3793 
  64   0.0000       1.205150        32.7938 
  65   0.0000       1.217925        33.1414 
  66   0.0000       1.237852        33.6837 
  67   0.0000       1.264193        34.4004 
  68   0.0000       1.272138        34.6166 
  69   0.0000       1.298495        35.3338 
  70   0.0000       1.499928        40.8151 
  71   0.0000       1.515950        41.2511 
  72   0.0000       1.540092        41.9080 
  73   0.0000       1.572682        42.7949 
  74   0.0000       1.595889        43.4263 
  75   0.0000       1.609370        43.7932 
  76   0.0000       1.637183        44.5500 
  77   0.0000       1.640889        44.6509 
  78   0.0000       1.650114        44.9019 
  79   0.0000       1.693289        46.0767 
  80   0.0000       1.713650        46.6308 
  81   0.0000       1.763605        47.9901 
  82   0.0000       1.857612        50.5482 
  83   0.0000       1.889146        51.4063 
  84   0.0000       1.911471        52.0138 
  85   0.0000       1.930685        52.5366 
  86   0.0000       1.991211        54.1836 
  87   0.0000       2.003066        54.5062 
  88   0.0000       2.013143        54.7804 
  89   0.0000       2.057216        55.9797 
  90   0.0000       2.063832        56.1597 
  91   0.0000       2.077426        56.5296 
  92   0.0000       2.122285        57.7503 
  93   0.0000       2.147550        58.4378 
  94   0.0000       2.160456        58.7890 
  95   0.0000       2.164363        58.8953 
  96   0.0000       2.175271        59.1921 
  97   0.0000       2.217614        60.3444 
  98   0.0000       2.245314        61.0981 
  99   0.0000       2.264510        61.6205 
 100   0.0000       2.282751        62.1168 
 101   0.0000       2.356747        64.1303 
 102   0.0000       2.396340        65.2077 
 103   0.0000       2.475178        67.3530 
 104   0.0000       2.497513        67.9608 
 105   0.0000       2.513736        68.4022 
 106   0.0000       2.546056        69.2817 
 107   0.0000       2.575600        70.0856 
 108   0.0000       2.595946        70.6393 
 109   0.0000       2.618833        71.2621 
 110   0.0000       2.639652        71.8286 
 111   0.0000       2.655542        72.2610 
 112   0.0000       2.688194        73.1495 
 113   0.0000       2.836589        77.1875 
 114   0.0000       2.850293        77.5604 
 115   0.0000       2.854856        77.6846 
 116   0.0000       2.865734        77.9806 
 117   0.0000       2.887137        78.5630 
 118   0.0000       2.899998        78.9130 
 119   0.0000       2.963763        80.6481 
 120   0.0000       2.978701        81.0546 
 121   0.0000       2.997663        81.5706 
 122   0.0000       3.000505        81.6479 
 123   0.0000       3.034745        82.5796 
 124   0.0000       3.049370        82.9776 
 125   0.0000       3.054861        83.1270 
 126   0.0000       3.146001        85.6070 
 127   0.0000       3.153818        85.8197 
 128   0.0000       3.154384        85.8352 
 129   0.0000       3.177452        86.4629 
 130   0.0000       3.232943        87.9729 
 131   0.0000       3.242352        88.2289 
 132   0.0000       3.257201        88.6330 
 133   0.0000       3.301221        89.8308 
 134   0.0000       3.330147        90.6179 
 135   0.0000       3.415690        92.9456 
 136   0.0000       3.430717        93.3545 
 137   0.0000       3.445917        93.7682 
 138   0.0000       3.485834        94.8544 
 139   0.0000       3.534613        96.1817 
 140   0.0000       3.543552        96.4250 
 141   0.0000       3.594284        97.8054 
 142   0.0000       3.646761        99.2334 
 143   0.0000       3.830929       104.2449 
 144   0.0000       4.058024       110.4244 
 145   0.0000       4.097975       111.5116 
 146   0.0000       4.118849       112.0796 
 147   0.0000       4.163321       113.2897 
 148   0.0000       5.027948       136.8174 
 149   0.0000       5.055222       137.5596 
 150   0.0000       5.315362       144.6384 
 151   0.0000       5.315861       144.6519 
 152   0.0000       5.365157       145.9933 
 153   0.0000       5.377660       146.3336 
 154   0.0000       5.378238       146.3493 
 155   0.0000       5.450213       148.3078 
 156   0.0000       5.453756       148.4042 
 157   0.0000       5.515347       150.0802 
 158   0.0000       5.638145       153.4217 
 159   0.0000       5.653922       153.8510 
 160   0.0000       5.689065       154.8073 
 161   0.0000       6.015820       163.6988 
 162   0.0000       6.016690       163.7225 
 163   0.0000       6.236911       169.7150 
 164   0.0000       6.319349       171.9582 
 165   0.0000       6.355206       172.9339 
 166   0.0000       6.390046       173.8820 
 167   0.0000       6.460841       175.8084 
 168   0.0000       6.520443       177.4303 
 169   0.0000       6.537081       177.8830 
 170   0.0000       6.538411       177.9192 
 171   0.0000       6.543983       178.0708 
 172   0.0000       6.617335       180.0668 
 173   0.0000       6.650335       180.9648 
 174   0.0000       6.720592       182.8766 
 175   0.0000       6.766694       184.1311 
 176   0.0000       6.773045       184.3039 
 177   0.0000       6.952031       189.1744 
 178   0.0000       6.992900       190.2865 
 179   0.0000       7.099415       193.1849 
 180   0.0000       7.185380       195.5241 
 181   0.0000       7.240980       197.0371 
 182   0.0000       7.251875       197.3335 
 183   0.0000       7.368537       200.5081 
 184   0.0000       7.618283       207.3040 
 185   0.0000       7.772441       211.4989 
 186   0.0000      14.922634       406.0655 
 187   0.0000      24.152157       657.2136 
 188   0.0000      43.757493      1190.7019 
 189   0.0000      44.120244      1200.5729 
 190   0.0000      44.265051      1204.5133 

                    ********************************
                    * MULLIKEN POPULATION ANALYSIS *
                    ********************************

-----------------------
MULLIKEN ATOMIC CHARGES
-----------------------
   0 C :    0.426023
   1 O :   -0.251520
   2 O :   -0.231690
   3 B :   -0.454313
   4 H :   -0.123249
   5 H :   -0.123886
   6 H :   -0.130500
   7 H :   -0.115034
   8 O :   -0.655047
   9 H :    0.318876
  10 H :    0.340339
Sum of atomic charges:   -1.0000000

--------------------------------
MULLIKEN REDUCED ORBITAL CHARGES
--------------------------------
  0 C s       :     2.919118  s :     2.919118
      pz      :     0.759410  p :     2.372588
      px      :     0.756611
      py      :     0.856567
      dz2     :     0.010951  d :     0.248957
      dxz     :     0.003466
      dyz     :     0.104012
      dx2y2   :     0.029174
      dxy     :     0.101354
      f0      :     0.004445  f :     0.033314
      f+1     :     0.000750
      f-1     :     0.003423
      f+2     :     0.007332
      f-2     :     0.000290
      f+3     :     0.011172
      f-3     :     0.005902
  1 O s       :     3.784651  s :     3.784651
      pz      :     1.558173  p :     4.434487
      px      :     1.566644
      py      :     1.309670
      dz2     :     0.002605  d :     0.030568
      dxz     :     0.000051
      dyz     :     0.010090
      dx2y2   :     0.007952
      dxy     :     0.009871
      f0      :     0.000235  f :     0.001814
      f+1     :     0.000039
      f-1     :     0.000216
      f+2     :     0.000389
      f-2     :     0.000004
      f+3     :     0.000578
      f-3     :     0.000354
  2 O s       :     3.782617  s :     3.782617
      pz      :     1.549723  p :     4.416325
      px      :     1.550969
      py      :     1.315633
      dz2     :     0.002605  d :     0.030915
      dxz     :     0.000105
      dyz     :     0.010183
      dx2y2   :     0.007821
      dxy     :     0.010201
      f0      :     0.000236  f :     0.001833
      f+1     :     0.000040
      f-1     :     0.000213
      f+2     :     0.000379
      f-2     :     0.000022
      f+3     :     0.000568
      f-3     :     0.000375
  3 B s       :     2.975180  s :     2.975180
      pz      :     0.838314  p :     2.415741
      px      :     0.806886
      py      :     0.770542
      dz2     :     0.014564  d :     0.060587
      dxz     :     0.016795
      dyz     :     0.003352
      dx2y2   :     0.004353
      dxy     :     0.021523
      f0      :     0.000207  f :     0.002805
      f+1     :     0.000945
      f-1     :     0.000205
      f+2     :     0.000187
      f-2     :     0.000274
      f+3     :     0.000901
      f-3     :     0.000085
  4 H s       :     1.114630  s :     1.114630
      pz      :     0.002067  p :     0.008619
      px      :     0.002783
      py      :     0.003769
  5 H s       :     1.114488  s :     1.114488
      pz      :     0.004544  p :     0.009397
      px      :     0.002681
      py      :     0.002172
  6 H s       :     1.121557  s :     1.121557
      pz      :     0.002225  p :     0.008944
      px      :     0.002699
      py      :     0.004019
  7 H s       :     1.106317  s :     1.106317
      pz      :     0.003166  p :     0.008716
      px      :     0.003449
      py      :     0.002102
  8 O s       :     3.783534  s :     3.783534
      pz      :     1.641177  p :     4.848795
      px      :     1.866205
      py      :     1.341413
      dz2     :     0.004372  d :     0.021608
      dxz     :     0.004617
      dyz     :     0.006604
      dx2y2   :     0.004115
      dxy     :     0.001901
      f0      :     0.000047  f :     0.001109
      f+1     :     0.000196
      f-1     :     0.000112
      f+2     :     0.000161
      f-2     :     0.000188
      f+3     :     0.000102
      f-3     :     0.000304
  9 H s       :     0.634811  s :     0.634811
      pz      :     0.013425  p :     0.046313
      px      :     0.015045
      py      :     0.017843
 10 H s       :     0.610133  s :     0.610133
      pz      :     0.022000  p :     0.049528
      px      :     0.016018
      py      :     0.011511


                     *******************************
                     * LOEWDIN POPULATION ANALYSIS *
                     *******************************

----------------------
LOEWDIN ATOMIC CHARGES
----------------------
   0 C :   -0.434864
   1 O :    0.168540
   2 O :    0.182497
   3 B :   -0.956168
   4 H :    0.002901
   5 H :    0.006448
   6 H :    0.013381
   7 H :    0.009174
   8 O :   -0.298207
   9 H :    0.150161
  10 H :    0.156137

-------------------------------
LOEWDIN REDUCED ORBITAL CHARGES
-------------------------------
  0 C s       :     2.789849  s :     2.789849
      pz      :     0.762477  p :     2.619489
      px      :     0.763975
      py      :     1.093036
      dz2     :     0.069457  d :     0.894881
      dxz     :     0.007932
      dyz     :     0.304639
      dx2y2   :     0.209263
      dxy     :     0.303589
      f0      :     0.014578  f :     0.130645
      f+1     :     0.002539
      f-1     :     0.019034
      f+2     :     0.024156
      f-2     :     0.001615
      f+3     :     0.037414
      f-3     :     0.031311
  1 O s       :     3.394268  s :     3.394268
      pz      :     1.439696  p :     4.365567
      px      :     1.446370
      py      :     1.479501
      dz2     :     0.008853  d :     0.065275
      dxz     :     0.000098
      dyz     :     0.014974
      dx2y2   :     0.026732
      dxy     :     0.014619
      f0      :     0.000556  f :     0.006350
      f+1     :     0.000089
      f-1     :     0.001278
      f+2     :     0.000924
      f-2     :     0.000012
      f+3     :     0.001332
      f-3     :     0.002159
  2 O s       :     3.393450  s :     3.393450
      pz      :     1.433032  p :     4.351927
      px      :     1.437417
      py      :     1.481478
      dz2     :     0.008888  d :     0.065699
      dxz     :     0.000203
      dyz     :     0.015002
      dx2y2   :     0.026061
      dxy     :     0.015546
      f0      :     0.000563  f :     0.006427
      f+1     :     0.000106
      f-1     :     0.001274
      f+2     :     0.000903
      f-2     :     0.000048
      f+3     :     0.001490
      f-3     :     0.002043
  3 B s       :     2.807040  s :     2.807040
      pz      :     0.981581  p :     2.895614
      px      :     0.960336
      py      :     0.953697
      dz2     :     0.056897  d :     0.229056
      dxz     :     0.069798
      dyz     :     0.010067
      dx2y2   :     0.019874
      dxy     :     0.072420
      f0      :     0.002003  f :     0.024459
      f+1     :     0.005282
      f-1     :     0.003972
      f+2     :     0.004602
      f-2     :     0.001422
      f+3     :     0.006186
      f-3     :     0.000991
  4 H s       :     0.972088  s :     0.972088
      pz      :     0.006510  p :     0.025011
      px      :     0.007865
      py      :     0.010636
  5 H s       :     0.968497  s :     0.968497
      pz      :     0.011783  p :     0.025055
      px      :     0.007192
      py      :     0.006080
  6 H s       :     0.961455  s :     0.961455
      pz      :     0.006970  p :     0.025163
      px      :     0.007978
      py      :     0.010216
  7 H s       :     0.965539  s :     0.965539
      pz      :     0.009106  p :     0.025287
      px      :     0.010000
      py      :     0.006181
  8 O s       :     3.462017  s :     3.462017
      pz      :     1.632169  p :     4.803991
      px      :     1.806615
      py      :     1.365207
      dz2     :     0.005070  d :     0.029980
      dxz     :     0.004929
      dyz     :     0.010162
      dx2y2   :     0.007408
      dxy     :     0.002411
      f0      :     0.000189  f :     0.002219
      f+1     :     0.000297
      f-1     :     0.000392
      f+2     :     0.000341
      f-2     :     0.000404
      f+3     :     0.000098
      f-3     :     0.000499
  9 H s       :     0.690108  s :     0.690108
      pz      :     0.042509  p :     0.159731
      px      :     0.044833
      py      :     0.072389
 10 H s       :     0.673511  s :     0.673511
      pz      :     0.080608  p :     0.170352
      px      :     0.052840
      py      :     0.036905


                      *****************************
                      * MAYER POPULATION ANALYSIS *
                      *****************************

  NA   - Mulliken gross atomic population
  ZA   - Total nuclear charge
  QA   - Mulliken gross atomic charge
  VA   - Mayer's total valence
  BVA  - Mayer's bonded valence
  FA   - Mayer's free valence

  ATOM       NA         ZA         QA         VA         BVA        FA
  0 C      5.5740     6.0000     0.4260     4.4558     4.4558    -0.0000
  1 O      8.2515     8.0000    -0.2515     2.3262     2.3262    -0.0000
  2 O      8.2317     8.0000    -0.2317     2.3500     2.3500    -0.0000
  3 B      5.4543     5.0000    -0.4543     3.9382     3.9382    -0.0000
  4 H      1.1232     1.0000    -0.1232     0.9453     0.9453     0.0000
  5 H      1.1239     1.0000    -0.1239     0.9542     0.9542    -0.0000
  6 H      1.1305     1.0000    -0.1305     0.9301     0.9301     0.0000
  7 H      1.1150     1.0000    -0.1150     0.9428     0.9428    -0.0000
  8 O      8.6550     8.0000    -0.6550     1.8151     1.8151     0.0000
  9 H      0.6811     1.0000     0.3189     0.9255     0.9255     0.0000
 10 H      0.6597     1.0000     0.3403     0.9523     0.9523    -0.0000

  Mayer bond orders larger than 0.100000
B(  0-C ,  1-O ) :   2.1494 B(  0-C ,  2-O ) :   2.1759 B(  1-O ,  2-O ) :   0.1839 
B(  3-B ,  4-H ) :   0.9802 B(  3-B ,  5-H ) :   0.9815 B(  3-B ,  6-H ) :   0.9100 
B(  3-B ,  7-H ) :   0.9681 B(  8-O ,  9-H ) :   0.9087 B(  8-O , 10-H ) :   0.8341 


-------
TIMINGS
-------

Total SCF time: 0 days 0 hours 0 min 31 sec 

Total time                  ....      31.291 sec
Sum of individual times     ....      31.042 sec  ( 99.2%)

Fock matrix formation       ....      29.588 sec  ( 94.6%)
  XC integration            ....       2.361 sec  (  8.0% of F)
    Basis function eval.    ....       0.591 sec  ( 25.0% of XC)
    Density eval.           ....       0.359 sec  ( 15.2% of XC)
    XC-Functional eval.     ....       0.256 sec  ( 10.8% of XC)
    XC-Potential eval.      ....       0.522 sec  ( 22.1% of XC)
Diagonalization             ....       0.032 sec  (  0.1%)
Density matrix formation    ....       0.012 sec  (  0.0%)
Population analysis         ....       0.004 sec  (  0.0%)
Initial guess               ....       0.271 sec  (  0.9%)
Orbital Transformation      ....       0.000 sec  (  0.0%)
Orbital Orthonormalization  ....       0.000 sec  (  0.0%)
DIIS solution               ....       0.009 sec  (  0.0%)
SOSCF solution              ....       0.016 sec  (  0.1%)
Grid generation             ....       1.111 sec  (  3.6%)


-------------------------------------------------------------------------------
                          DFT DISPERSION CORRECTION                            
                                                                               
                              DFTD3 V3.1  Rev 1                                
                          USING Becke-Johnson damping                          
-------------------------------------------------------------------------------
The WB97X-D3BJ functional is recognized
Active option DFTDOPT                   ...         4   

molecular C6(AA) [au] = 1000.577476 


            DFT-D V3
 parameters
 s6 scaling factor         :     1.0000 
 a1 scaling factor         :     0.0000 
 s8 scaling factor         :     0.2641 
 a2 scaling factor         :     5.4959 
 ad hoc parameters k1-k3   :    16.0000     1.3333    -4.0000 

 Edisp/kcal,au: -6.180987826145  -0.009850030035 
 E6   /kcal   :  -5.277849848 
 E8   /kcal   :  -0.903137978 
 % E8         :  14.611547602 

-------------------------   ----------------
Dispersion correction           -0.009850030
-------------------------   ----------------


-------------------------   --------------------
FINAL SINGLE POINT ENERGY      -292.501144866185
-------------------------   --------------------


                            ***************************************
                            *     ORCA property calculations      *
                            ***************************************

                                    ---------------------
                                    Active property flags
                                    ---------------------
   (+) Dipole Moment


------------------------------------------------------------------------------
                       ORCA ELECTRIC PROPERTIES CALCULATION
------------------------------------------------------------------------------

Dipole Moment Calculation                       ... on
Quadrupole Moment Calculation                   ... off
Polarizability Calculation                      ... off
GBWName                                         ... example-calculations-r.gbw
Electron density file                           ... example-calculations-r.scfp
The origin for moment calculation is the CENTER OF MASS  = ( 0.397069,  0.014381  5.749483)

-------------
DIPOLE MOMENT
-------------
                                X             Y             Z
Electronic contribution:      2.80710      -0.18602     -12.96012
Nuclear contribution   :     -2.55197      -0.13264       9.36795
                        -----------------------------------------
Total Dipole Moment    :      0.25512      -0.31866      -3.59217
                        -----------------------------------------
Magnitude (a.u.)       :      3.61529
Magnitude (Debye)      :      9.18933



--------------------
Rotational spectrum 
--------------------
 
Rotational constants in cm-1:     0.157071     0.079017     0.073627 
Rotational constants in MHz :  4708.871016  2368.875597  2207.281379 

 Dipole components along the rotational axes: 
x,y,z [a.u.] :    -3.468498     1.017147     0.072317 
x,y,z [Debye]:    -8.816220     2.585382     0.183815 

 

Timings for individual modules:

Sum of individual times         ...       33.118 sec (=   0.552 min)
GTO integral calculation        ...        1.139 sec (=   0.019 min)   3.4 %
SCF iterations                  ...       31.978 sec (=   0.533 min)  96.6 %
                             ****ORCA TERMINATED NORMALLY****
TOTAL RUN TIME: 0 days 0 hours 0 minutes 33 seconds 964 msec
