
                                 *****************
                                 * O   R   C   A *
                                 *****************

           --- An Ab Initio, DFT and Semiempirical electronic structure package ---

                  #######################################################
                  #                        -***-                        #
                  #          Department of theory and spectroscopy      #
                  #               Directorship: Frank Neese             #
                  #        Max Planck Institute fuer Kohlenforschung    #
                  #                Kaiser Wilhelm Platz 1               #
                  #                 D-45470 Muelheim/Ruhr               #
                  #                      Germany                        #
                  #                                                     #
                  #                  All rights reserved                #
                  #                        -***-                        #
                  #######################################################


                         Program Version 4.2.0 -  RELEASE  -


 With contributions from (in alphabetic order):
   Daniel Aravena         : Magnetic Suceptibility
   Michael Atanasov       : Ab Initio Ligand Field Theory (pilot matlab implementation)
   Alexander A. Auer      : GIAO ZORA, VPT2
   Ute Becker             : Parallelization
   Giovanni Bistoni       : ED, misc. LED, open-shell LED, HFLED
   Martin Brehm           : Molecular dynamics
   Dmytro Bykov           : SCF Hessian
   Vijay G. Chilkuri      : MRCI spin determinant printing, contributions to CSF-ICE
   Dipayan Datta          : RHF DLPNO-CCSD density
   Achintya Kumar Dutta   : EOM-CC, STEOM-CC
   Dmitry Ganyushin       : Spin-Orbit,Spin-Spin,Magnetic field MRCI
   Miquel Garcia          : C-PCM Hessian, Gaussian charge scheme
   Yang Guo               : DLPNO-NEVPT2, CIM, IAO-localization
   Andreas Hansen         : Spin unrestricted coupled pair/coupled cluster methods
   Benjamin Helmich-Paris : CASSCF linear response (MC-RPA)
   Lee Huntington         : MR-EOM, pCC
   Robert Izsak           : Overlap fitted RIJCOSX, COSX-SCS-MP3, EOM
   Christian Kollmar      : KDIIS, OOCD, Brueckner-CCSD(T), CCSD density
   Simone Kossmann        : Meta GGA functionals, TD-DFT gradient, OOMP2, MP2 Hessian
   Martin Krupicka        : AUTO-CI
   Lucas Lang             : DCDCAS
   Dagmar Lenk            : GEPOL surface, SMD
   Dimitrios Liakos       : Extrapolation schemes; Compound Job, initial MDCI parallelization
   Dimitrios Manganas     : Further ROCIS development; embedding schemes
   Dimitrios Pantazis     : SARC Basis sets
   Taras Petrenko         : DFT Hessian,TD-DFT gradient, ASA, ECA, R-Raman, ABS, FL, XAS/XES, NRVS
   Peter Pinski           : DLPNO-MP2, DLPNO-MP2 Gradient
   Christoph Reimann      : Effective Core Potentials
   Marius Retegan         : Local ZFS, SOC
   Christoph Riplinger    : Optimizer, TS searches, QM/MM, DLPNO-CCSD(T), (RO)-DLPNO pert. Triples
   Tobias Risthaus        : Range-separated hybrids, TD-DFT gradient, RPA, STAB
   Michael Roemelt        : Original ROCIS implementation
   Masaaki Saitow         : Open-shell DLPNO-CCSD energy and density
   Barbara Sandhoefer     : DKH picture change effects
   Avijit Sen             : IP-ROCIS
   Kantharuban Sivalingam : CASSCF convergence, NEVPT2, FIC-MRCI
   Bernardo de Souza      : ESD, SOC TD-DFT
   Georgi Stoychev        : AutoAux, RI-MP2 NMR
   Willem Van den Heuvel  : Paramagnetic NMR
   Boris Wezisla          : Elementary symmetry handling
   Frank Wennmohs         : Technical directorship


 We gratefully acknowledge several colleagues who have allowed us to
 interface, adapt or use parts of their codes:
   Stefan Grimme, W. Hujo, H. Kruse,             : VdW corrections, initial TS optimization,
                  C. Bannwarth                     DFT functionals, gCP, sTDA/sTD-DF
   Ed Valeev, F. Pavosevic, A. Kumar             : LibInt (2-el integral package), F12 methods
   Garnet Chan, S. Sharma, J. Yang, R. Olivares  : DMRG
   Ulf Ekstrom                                   : XCFun DFT Library
   Mihaly Kallay                                 : mrcc  (arbitrary order and MRCC methods)
   Andreas Klamt, Michael Diedenhofen            : otool_cosmo (COSMO solvation model)
   Jiri Pittner, Ondrej Demel                    : Mk-CCSD
   Frank Weinhold                                : gennbo (NPA and NBO analysis)
   Christopher J. Cramer and Donald G. Truhlar   : smd solvation model
   Lars Goerigk                                  : TD-DFT with DH, B97 family of functionals
   V. Asgeirsson, H. Jonsson                     : NEB implementation
   FAccTs GmbH                                   : IRC, NEB, NEB-TS, Multilevel, MM, QM/MM, CI optimization
   S Lehtola, MJT Oliveira, MAL Marques          : LibXC Library


 Your calculation uses the libint2 library for the computation of 2-el integrals
 For citations please refer to: http://libint.valeyev.net

 Your ORCA version has been built with support for libXC version: 4.2.3
 For citations please refer to: https://tddft.org/programs/libxc/

 This ORCA versions uses:
   CBLAS   interface :  Fast vector & matrix operations
   LAPACKE interface :  Fast linear algebra routines
   SCALAPACK package :  Parallel linear algebra routines


Your calculation utilizes the atom-pairwise dispersion correction
with the Becke-Johnson damping scheme (D3BJ)
Cite in your paper:
S.Grimme, S.Ehrlich, L.Goerigk, J Comput Chem, (2011), 32, 1456–1465 
S.Grimme, J.Antony, S.Ehrlich and H.Krieg, J.Chem.Phys., 132, (2010), 154104 
   

----- Orbital basis set information -----
Your calculation utilizes the basis: def2-TZVP
   F. Weigend and R. Ahlrichs, Phys. Chem. Chem. Phys. 7, 3297 (2005).

================================================================================
                                        WARNINGS
                       Please study these warnings very carefully!
================================================================================


INFO   : the flag for use of LIBINT has been found!

================================================================================
                                       INPUT FILE
================================================================================
NAME = example-calculations-ts.inp
|  1> ! wB97X-D3BJ def2-TZVP SP Grid4 TightSCF 
|  2> 
|  3> %pal
|  4>     nprocs 4
|  5> end
|  6> 
|  7> *xyz -1 1
|  8> C  1.090336  0.071690  2.651560
|  9> O  0.141258 -0.444662  2.000159
| 10> O  2.209629  0.437665  2.295140
| 11> B  0.044227  0.147203  5.808910
| 12> H -0.469852 -0.853111  6.239891
| 13> H  1.248869  0.238592  5.802636
| 14> H -0.607371  1.163798  5.716650
| 15> H  0.844574  0.216901  3.779219
| 16> O -1.673959 -0.617949  3.834059
| 17> H -1.009273 -0.661898  3.067365
| 18> H -1.830463  0.333647  3.888137
| 19> *
| 20> 
| 21>                          ****END OF INPUT****
================================================================================

                       ****************************
                       * Single Point Calculation *
                       ****************************

---------------------------------
CARTESIAN COORDINATES (ANGSTROEM)
---------------------------------
  C      1.090336    0.071690    2.651560
  O      0.141258   -0.444662    2.000159
  O      2.209629    0.437665    2.295140
  B      0.044227    0.147203    5.808910
  H     -0.469852   -0.853111    6.239891
  H      1.248869    0.238592    5.802636
  H     -0.607371    1.163798    5.716650
  H      0.844574    0.216901    3.779219
  O     -1.673959   -0.617949    3.834059
  H     -1.009273   -0.661898    3.067365
  H     -1.830463    0.333647    3.888137

----------------------------
CARTESIAN COORDINATES (A.U.)
----------------------------
  NO LB      ZA    FRAG     MASS         X           Y           Z
   0 C     6.0000    0    12.011    2.060436    0.135474    5.010722
   1 O     8.0000    0    15.999    0.266939   -0.840289    3.779753
   2 O     8.0000    0    15.999    4.175594    0.827067    4.337186
   3 B     5.0000    0    10.810    0.083577    0.278173   10.977249
   4 H     1.0000    0     1.008   -0.887892   -1.612146   11.791685
   5 H     1.0000    0     1.008    2.360020    0.450874   10.965393
   6 H     1.0000    0     1.008   -1.147765    2.199259   10.802903
   7 H     1.0000    0     1.008    1.596014    0.409883    7.141689
   8 O     8.0000    0    15.999   -3.163324   -1.167754    7.245321
   9 H     1.0000    0     1.008   -1.907250   -1.250806    5.796480
  10 H     1.0000    0     1.008   -3.459074    0.630501    7.347514

--------------------------------
INTERNAL COORDINATES (ANGSTROEM)
--------------------------------
 C      0   0   0     0.000000000000     0.00000000     0.00000000
 O      1   0   0     1.261622645956     0.00000000     0.00000000
 O      1   2   0     1.230361628495   131.03556281     0.00000000
 B      1   2   3     3.326996434556   105.23305485   183.13577072
 H      4   1   2     1.204429300207   117.06106081    46.10129122
 H      4   1   2     1.208119886667    71.53430894   160.29626606
 H      4   1   2     1.211014969036    96.65762204   277.85599761
 H      1   2   3     1.163228273146   113.12184109   180.05655076
 O      2   1   3     2.586161315823   100.91220243   183.06408322
 H      9   2   1     1.015656774128     7.36632828   215.18306097
 H      9   2   1     0.965894859349    95.01500297    70.48342264

---------------------------
INTERNAL COORDINATES (A.U.)
---------------------------
 C      0   0   0     0.000000000000     0.00000000     0.00000000
 O      1   0   0     2.384121285210     0.00000000     0.00000000
 O      1   2   0     2.325046523542   131.03556281     0.00000000
 B      1   2   3     6.287112109844   105.23305485   183.13577072
 H      4   1   2     2.276041525062   117.06106081    46.10129122
 H      4   1   2     2.283015722745    71.53430894   160.29626606
 H      4   1   2     2.288486635557    96.65762204   277.85599761
 H      1   2   3     2.198182867480   113.12184109   180.05655076
 O      2   1   3     4.887136625046   100.91220243   183.06408322
 H      9   2   1     1.919313149165     7.36632828   215.18306097
 H      9   2   1     1.825276758331    95.01500297    70.48342264

---------------------
BASIS SET INFORMATION
---------------------
There are 4 groups of distinct atoms

 Group   1 Type C   : 11s6p2d1f contracted to 5s3p2d1f pattern {62111/411/11/1}
 Group   2 Type O   : 11s6p2d1f contracted to 5s3p2d1f pattern {62111/411/11/1}
 Group   3 Type B   : 11s6p2d1f contracted to 5s3p2d1f pattern {62111/411/11/1}
 Group   4 Type H   : 5s1p contracted to 3s1p pattern {311/1}

Atom   0C    basis set group =>   1
Atom   1O    basis set group =>   2
Atom   2O    basis set group =>   2
Atom   3B    basis set group =>   3
Atom   4H    basis set group =>   4
Atom   5H    basis set group =>   4
Atom   6H    basis set group =>   4
Atom   7H    basis set group =>   4
Atom   8O    basis set group =>   2
Atom   9H    basis set group =>   4
Atom  10H    basis set group =>   4


           ************************************************************
           *        Program running with 4 parallel MPI-processes     *
           *              working on a common directory               *
           ************************************************************
------------------------------------------------------------------------------
                           ORCA GTO INTEGRAL CALCULATION
------------------------------------------------------------------------------

                         BASIS SET STATISTICS AND STARTUP INFO

 # of primitive gaussian shells          ...  136
 # of primitive gaussian functions       ...  278
 # of contracted shells                  ...   79
 # of contracted basis functions         ...  191
 Highest angular momentum                ...    3
 Maximum contraction depth               ...    6
 Integral package used                   ... LIBINT
 Integral threshhold            Thresh   ...  2.500e-11
 Primitive cut-off              TCut     ...  2.500e-12


------------------------------ INTEGRAL EVALUATION ----------------------------


 * One electron integrals 
 Pre-screening matrix                    ... done
 Shell pair data                         ... done (   0.001 sec)



           ************************************************************
           *        Program running with 4 parallel MPI-processes     *
           *              working on a common directory               *
           ************************************************************
-------------------------------------------------------------------------------
                                 ORCA SCF
-------------------------------------------------------------------------------

------------
SCF SETTINGS
------------
Hamiltonian:
 Density Functional     Method          .... DFT(GTOs)
 Exchange Functional    Exchange        .... WB97X-V
 Correlation Functional Correlation     .... WB97X-V
 Gradients option       PostSCFGGA      .... off
 Hybrid DFT is turned on
   Fraction HF Exchange ScalHFX         ....  0.167000
   Scaling of DF-GGA-X  ScalDFX         ....  0.000000
   Scaling of DF-GGA-C  ScalDFC         ....  1.000000
   Scaling of DF-LDA-C  ScalLDAC        ....  1.000000
   Perturbative correction              ....  0.000000
   Density functional embedding theory  .... OFF
 Long-range corrected/Screened/Range-Separated Hybrid DFT is turned on
   Amount of maximum screened exact exchange              ....  0.833000
   Range separation parameter mu (erf(mu*r12)/r12)        ....  0.300000


General Settings:
 Integral files         IntName         .... example-calculations-ts
 Hartree-Fock type      HFTyp           .... RHF
 Total Charge           Charge          ....   -1
 Multiplicity           Mult            ....    1
 Number of Electrons    NEL             ....   42
 Basis Dimension        Dim             ....  191
 Nuclear Repulsion      ENuc            ....    159.6226354154 Eh

Convergence Acceleration:
 DIIS                   CNVDIIS         .... on
   Start iteration      DIISMaxIt       ....    12
   Startup error        DIISStart       ....  0.200000
   # of expansion vecs  DIISMaxEq       ....     5
   Bias factor          DIISBfac        ....   1.050
   Max. coefficient     DIISMaxC        ....  10.000
 Newton-Raphson         CNVNR           .... off
 SOSCF                  CNVSOSCF        .... on
   Start iteration      SOSCFMaxIt      ....   150
   Startup grad/error   SOSCFStart      ....  0.003300
 Level Shifting         CNVShift        .... on
   Level shift para.    LevelShift      ....    0.2500
   Turn off err/grad.   ShiftErr        ....    0.0010
 Zerner damping         CNVZerner       .... off
 Static damping         CNVDamp         .... on
   Fraction old density DampFac         ....    0.7000
   Max. Damping (<1)    DampMax         ....    0.9800
   Min. Damping (>=0)   DampMin         ....    0.0000
   Turn off err/grad.   DampErr         ....    0.1000
 Fernandez-Rico         CNVRico         .... off

SCF Procedure:
 Maximum # iterations   MaxIter         ....   125
 SCF integral mode      SCFMode         .... Direct
   Integral package                     .... LIBINT
 Reset frequency        DirectResetFreq ....    20
 Integral Threshold     Thresh          ....  2.500e-11 Eh
 Primitive CutOff       TCut            ....  2.500e-12 Eh

Convergence Tolerance:
 Convergence Check Mode ConvCheckMode   .... Total+1el-Energy
 Convergence forced     ConvForced      .... 0
 Energy Change          TolE            ....  1.000e-08 Eh
 1-El. energy change                    ....  1.000e-05 Eh
 Orbital Gradient       TolG            ....  1.000e-05
 Orbital Rotation angle TolX            ....  1.000e-05
 DIIS Error             TolErr          ....  5.000e-07


Diagonalization of the overlap matrix:
Smallest eigenvalue                        ... 1.213e-03
Time for diagonalization                   ...    0.006 sec
Threshold for overlap eigenvalues          ... 1.000e-08
Number of eigenvalues below threshold      ... 0
Time for construction of square roots      ...    0.002 sec
Total time needed                          ...    0.008 sec

-------------------
DFT GRID GENERATION
-------------------

General Integration Accuracy     IntAcc      ...  4.670
Radial Grid Type                 RadialGrid  ... Gauss-Chebyshev
Angular Grid (max. acc.)         AngularGrid ... Lebedev-302
Angular grid pruning method      GridPruning ... 3 (G Style)
Weight generation scheme         WeightScheme... Becke
Basis function cutoff            BFCut       ...    1.0000e-11
Integration weight cutoff        WCut        ...    1.0000e-14
Grids for H and He will be reduced by one unit

# of grid points (after initial pruning)     ...  51340 (   0.0 sec)
# of grid points (after weights+screening)   ...  48381 (   0.0 sec)
nearest neighbour list constructed           ...    0.0 sec
Grid point re-assignment to atoms done       ...    0.0 sec
Grid point division into batches done        ...    0.2 sec
Reduced shell lists constructed in    0.2 sec

Total number of grid points                  ...    48381
Total number of batches                      ...      760
Average number of points per batch           ...       63
Average number of grid points per atom       ...     4398
Average number of shells per batch           ...    48.03 (60.80%)
Average number of basis functions per batch  ...   119.69 (62.66%)
Average number of large shells per batch     ...    37.42 (77.90%)
Average number of large basis fcns per batch ...    91.72 (76.64%)
Maximum spatial batch extension              ...  16.11, 17.61, 18.48 au
Average spatial batch extension              ...   0.81,  0.89,  0.81 au

Time for grid setup =    0.444 sec

------------------------------
INITIAL GUESS: MODEL POTENTIAL
------------------------------
Loading Hartree-Fock densities                     ... done
Calculating cut-offs                               ... done
Setting up the integral package                    ... done
Initializing the effective Hamiltonian             ... done
Starting the Coulomb interaction                   ... done (   0.0 sec)
Reading the grid                                   ... done
Mapping shells                                     ... done
Starting the XC term evaluation                    ... done (   0.1 sec)
  promolecular density results
     # of electrons  =     40.996988204
     EX              =    -23.846922519
     EC              =     -1.680800862
     EX+EC           =    -25.527723381
Transforming the Hamiltonian                       ... done (   0.0 sec)
Diagonalizing the Hamiltonian                      ... done (   0.0 sec)
Back transforming the eigenvectors                 ... done (   0.0 sec)
Now organizing SCF variables                       ... done
                      ------------------
                      INITIAL GUESS DONE (   0.7 sec)
                      ------------------
--------------
SCF ITERATIONS
--------------
ITER       Energy         Delta-E        Max-DP      RMS-DP      [F,P]     Damp
               ***  Starting incremental Fock matrix formation  ***
  0   -292.4161894530   0.000000000000 0.01738447  0.00044821  0.3371646 0.7000
  1   -292.4297364477  -0.013546994680 0.01514551  0.00038161  0.2337444 0.7000
                               ***Turning on DIIS***
  2   -292.4381855096  -0.008449061914 0.01090804  0.00028442  0.1614636 0.7000
  3   -292.4438591182  -0.005673608622 0.00729258  0.00022171  0.1112674 0.7000
  4   -292.4478624058  -0.004003287613 0.01565252  0.00058364  0.0771984 0.0000
                      *** Initiating the SOSCF procedure ***
                           *** Shutting down DIIS ***
                      *** Re-Reading the Fockian *** 
                      *** Removing any level shift *** 
ITER      Energy       Delta-E        Grad      Rot      Max-DP    RMS-DP
  5   -292.45767227  -0.0098098629  0.002409  0.002409  0.001682  0.000073
               *** Restarting incremental Fock matrix formation ***
  6   -292.45776523  -0.0000929577  0.001492  0.004467  0.002565  0.000063
  7   -292.45780761  -0.0000423863  0.000561  0.003941  0.003068  0.000059
  8   -292.45781457  -0.0000069609  0.000442  0.000714  0.000852  0.000016
  9   -292.45781842  -0.0000038471  0.000062  0.000131  0.000108  0.000004
 10   -292.45781845  -0.0000000309  0.000056  0.000057  0.000046  0.000001
 11   -292.45781850  -0.0000000510  0.000010  0.000042  0.000030  0.000001
 12   -292.45781851  -0.0000000024  0.000006  0.000008  0.000009  0.000000
                  ***Gradient check signals convergence***
              ***Rediagonalizing the Fockian in SOSCF/NRSCF***

               *****************************************************
               *                     SUCCESS                       *
               *           SCF CONVERGED AFTER  13 CYCLES          *
               *****************************************************

Setting up the final grid:

General Integration Accuracy     IntAcc      ...  5.010
Radial Grid Type                 RadialGrid  ... Gauss-Chebyshev
Angular Grid (max. acc.)         AngularGrid ... Lebedev-434
Angular grid pruning method      GridPruning ... 3 (G Style)
Weight generation scheme         WeightScheme... Becke
Basis function cutoff            BFCut       ...    1.0000e-11
Integration weight cutoff        WCut        ...    1.0000e-14
Grids for H and He will be reduced by one unit

# of grid points (after initial pruning)     ...  93966 (   0.0 sec)
# of grid points (after weights+screening)   ...  88377 (   0.0 sec)
nearest neighbour list constructed           ...    0.0 sec
Grid point re-assignment to atoms done       ...    0.0 sec
Grid point division into batches done        ...    0.6 sec
Reduced shell lists constructed in    0.7 sec

Total number of grid points                  ...    88377
Total number of batches                      ...     1387
Average number of points per batch           ...       63
Average number of grid points per atom       ...     8034
Average number of shells per batch           ...    46.73 (59.15%)
Average number of basis functions per batch  ...   116.05 (60.76%)
Average number of large shells per batch     ...    36.12 (77.30%)
Average number of large basis fcns per batch ...    88.78 (76.50%)
Maximum spatial batch extension              ...  17.05, 25.60, 15.83 au
Average spatial batch extension              ...   0.67,  0.75,  0.67 au

Final grid set up in    0.8 sec
Final integration                            ... done (   0.3 sec)
Change in XC energy                          ...     0.000023309
Integrated number of electrons               ...    42.000000870
Previous integrated no of electrons          ...    41.999937990

----------------
TOTAL SCF ENERGY
----------------

Total Energy       :         -292.45779520 Eh           -7958.18119 eV

Components:
Nuclear Repulsion  :          159.62263542 Eh            4343.55273 eV
Electronic Energy  :         -452.08043061 Eh          -12301.73393 eV
One Electron Energy:         -724.31281925 Eh          -19709.55383 eV
Two Electron Energy:          272.23238864 Eh            7407.81990 eV

Virial components:
Potential Energy   :         -583.73293813 Eh          -15884.18078 eV
Kinetic Energy     :          291.27514293 Eh            7925.99959 eV
Virial Ratio       :            2.00406026


DFT components:
N(Alpha)           :       21.000000435152 electrons
N(Beta)            :       21.000000435152 electrons
N(Total)           :       42.000000870304 electrons
E(X)               :      -24.515452267003 Eh       
E(C)               :       -1.732173332338 Eh       
E(XC)              :      -26.247625599341 Eh       
DFET-embed. en.    :        0.000000000000 Eh       

---------------
SCF CONVERGENCE
---------------

  Last Energy change         ...   -1.4790e-09  Tolerance :   1.0000e-08
  Last MAX-Density change    ...    5.2000e-06  Tolerance :   1.0000e-07
  Last RMS-Density change    ...    1.3733e-07  Tolerance :   5.0000e-09
  Last Orbital Gradient      ...    2.3563e-06  Tolerance :   1.0000e-05
  Last Orbital Rotation      ...    7.7299e-06  Tolerance :   1.0000e-05

             **** THE GBW FILE WAS UPDATED (example-calculations-ts.gbw) ****
             **** DENSITY FILE WAS UPDATED (example-calculations-ts.scfp) ****
             **** ENERGY FILE WAS UPDATED (example-calculations-ts.en.tmp) ****
             **** THE GBW FILE WAS UPDATED (example-calculations-ts.gbw) ****
             **** DENSITY FILE WAS UPDATED (example-calculations-ts.scfp) ****
----------------
ORBITAL ENERGIES
----------------

  NO   OCC          E(Eh)            E(eV) 
   0   2.0000     -19.036382      -518.0063 
   1   2.0000     -18.992883      -516.8226 
   2   2.0000     -18.985927      -516.6334 
   3   2.0000     -10.188375      -277.2398 
   4   2.0000      -6.725767      -183.0174 
   5   2.0000      -0.993044       -27.0221 
   6   2.0000      -0.957772       -26.0623 
   7   2.0000      -0.906525       -24.6678 
   8   2.0000      -0.513202       -13.9649 
   9   2.0000      -0.477423       -12.9913 
  10   2.0000      -0.465791       -12.6748 
  11   2.0000      -0.392874       -10.6906 
  12   2.0000      -0.353612        -9.6223 
  13   2.0000      -0.342322        -9.3150 
  14   2.0000      -0.330287        -8.9876 
  15   2.0000      -0.317706        -8.6452 
  16   2.0000      -0.312883        -8.5140 
  17   2.0000      -0.252320        -6.8660 
  18   2.0000      -0.194820        -5.3013 
  19   2.0000      -0.188617        -5.1325 
  20   2.0000      -0.171257        -4.6601 
  21   0.0000       0.162206         4.4139 
  22   0.0000       0.252449         6.8695 
  23   0.0000       0.275078         7.4852 
  24   0.0000       0.282708         7.6929 
  25   0.0000       0.303662         8.2631 
  26   0.0000       0.321969         8.7612 
  27   0.0000       0.341440         9.2911 
  28   0.0000       0.366221         9.9654 
  29   0.0000       0.374946        10.2028 
  30   0.0000       0.379048        10.3144 
  31   0.0000       0.420768        11.4497 
  32   0.0000       0.438952        11.9445 
  33   0.0000       0.465135        12.6570 
  34   0.0000       0.491819        13.3831 
  35   0.0000       0.504952        13.7404 
  36   0.0000       0.568524        15.4703 
  37   0.0000       0.614557        16.7230 
  38   0.0000       0.630184        17.1482 
  39   0.0000       0.641258        17.4495 
  40   0.0000       0.657944        17.9036 
  41   0.0000       0.663704        18.0603 
  42   0.0000       0.669283        18.2121 
  43   0.0000       0.687865        18.7178 
  44   0.0000       0.707773        19.2595 
  45   0.0000       0.740267        20.1437 
  46   0.0000       0.756831        20.5944 
  47   0.0000       0.759354        20.6631 
  48   0.0000       0.779127        21.2011 
  49   0.0000       0.792327        21.5603 
  50   0.0000       0.810588        22.0572 
  51   0.0000       0.821353        22.3501 
  52   0.0000       0.860398        23.4126 
  53   0.0000       0.864505        23.5244 
  54   0.0000       0.914163        24.8756 
  55   0.0000       0.947315        25.7777 
  56   0.0000       0.952997        25.9324 
  57   0.0000       0.968469        26.3534 
  58   0.0000       0.986412        26.8416 
  59   0.0000       0.999425        27.1957 
  60   0.0000       1.041642        28.3445 
  61   0.0000       1.053234        28.6600 
  62   0.0000       1.101199        29.9651 
  63   0.0000       1.117742        30.4153 
  64   0.0000       1.158229        31.5170 
  65   0.0000       1.168284        31.7906 
  66   0.0000       1.186881        32.2967 
  67   0.0000       1.272746        34.6332 
  68   0.0000       1.378503        37.5110 
  69   0.0000       1.394318        37.9413 
  70   0.0000       1.443372        39.2761 
  71   0.0000       1.510278        41.0968 
  72   0.0000       1.557176        42.3729 
  73   0.0000       1.593984        43.3745 
  74   0.0000       1.624142        44.1951 
  75   0.0000       1.669204        45.4213 
  76   0.0000       1.684669        45.8422 
  77   0.0000       1.720949        46.8294 
  78   0.0000       1.753335        47.7107 
  79   0.0000       1.778274        48.3893 
  80   0.0000       1.812210        49.3127 
  81   0.0000       1.825231        49.6671 
  82   0.0000       1.859252        50.5928 
  83   0.0000       1.887573        51.3635 
  84   0.0000       1.934478        52.6398 
  85   0.0000       1.944290        52.9068 
  86   0.0000       1.967475        53.5377 
  87   0.0000       1.980871        53.9023 
  88   0.0000       2.030049        55.2404 
  89   0.0000       2.053250        55.8718 
  90   0.0000       2.080794        56.6213 
  91   0.0000       2.107456        57.3468 
  92   0.0000       2.129224        57.9391 
  93   0.0000       2.141465        58.2722 
  94   0.0000       2.167706        58.9863 
  95   0.0000       2.187661        59.5293 
  96   0.0000       2.220836        60.4320 
  97   0.0000       2.264931        61.6319 
  98   0.0000       2.285992        62.2050 
  99   0.0000       2.329406        63.3863 
 100   0.0000       2.346604        63.8543 
 101   0.0000       2.357288        64.1451 
 102   0.0000       2.371531        64.5326 
 103   0.0000       2.377875        64.7053 
 104   0.0000       2.390303        65.0435 
 105   0.0000       2.452535        66.7369 
 106   0.0000       2.506928        68.2170 
 107   0.0000       2.529586        68.8335 
 108   0.0000       2.565517        69.8113 
 109   0.0000       2.595387        70.6241 
 110   0.0000       2.616356        71.1947 
 111   0.0000       2.638252        71.7905 
 112   0.0000       2.668667        72.6181 
 113   0.0000       2.710760        73.7635 
 114   0.0000       2.719571        74.0033 
 115   0.0000       2.783702        75.7484 
 116   0.0000       2.899620        78.9027 
 117   0.0000       2.912281        79.2472 
 118   0.0000       2.943532        80.0976 
 119   0.0000       2.997559        81.5677 
 120   0.0000       3.013589        82.0039 
 121   0.0000       3.016430        82.0812 
 122   0.0000       3.064202        83.3812 
 123   0.0000       3.116768        84.8116 
 124   0.0000       3.169753        86.2534 
 125   0.0000       3.183519        86.6279 
 126   0.0000       3.229791        87.8871 
 127   0.0000       3.241286        88.1999 
 128   0.0000       3.251550        88.4792 
 129   0.0000       3.264791        88.8395 
 130   0.0000       3.273154        89.0670 
 131   0.0000       3.310975        90.0962 
 132   0.0000       3.315136        90.2094 
 133   0.0000       3.361946        91.4832 
 134   0.0000       3.404372        92.6377 
 135   0.0000       3.417903        93.0059 
 136   0.0000       3.508102        95.4603 
 137   0.0000       3.547296        96.5268 
 138   0.0000       3.617310        98.4320 
 139   0.0000       3.632459        98.8442 
 140   0.0000       3.732302       101.5611 
 141   0.0000       3.755112       102.1818 
 142   0.0000       3.871892       105.3595 
 143   0.0000       4.031361       109.6989 
 144   0.0000       4.071148       110.7816 
 145   0.0000       4.116528       112.0164 
 146   0.0000       4.265657       116.0744 
 147   0.0000       4.399019       119.7034 
 148   0.0000       4.620618       125.7334 
 149   0.0000       4.688323       127.5758 
 150   0.0000       5.380699       146.4163 
 151   0.0000       5.440126       148.0334 
 152   0.0000       5.478844       149.0869 
 153   0.0000       5.489004       149.3634 
 154   0.0000       5.516370       150.1081 
 155   0.0000       5.530368       150.4890 
 156   0.0000       5.648809       153.7119 
 157   0.0000       5.657507       153.9486 
 158   0.0000       5.694122       154.9449 
 159   0.0000       5.717518       155.5816 
 160   0.0000       5.783428       157.3751 
 161   0.0000       5.813566       158.1952 
 162   0.0000       5.884768       160.1327 
 163   0.0000       6.096808       165.9026 
 164   0.0000       6.249259       170.0510 
 165   0.0000       6.349232       172.7714 
 166   0.0000       6.374518       173.4595 
 167   0.0000       6.423325       174.7876 
 168   0.0000       6.494357       176.7205 
 169   0.0000       6.608343       179.8221 
 170   0.0000       6.641620       180.7277 
 171   0.0000       6.674922       181.6339 
 172   0.0000       6.711336       182.6247 
 173   0.0000       6.721376       182.8979 
 174   0.0000       6.750308       183.6852 
 175   0.0000       6.775880       184.3811 
 176   0.0000       6.909171       188.0081 
 177   0.0000       6.987379       190.1363 
 178   0.0000       7.054672       191.9674 
 179   0.0000       7.126013       193.9087 
 180   0.0000       7.141024       194.3172 
 181   0.0000       7.249315       197.2639 
 182   0.0000       7.368168       200.4980 
 183   0.0000       7.401992       201.4184 
 184   0.0000       7.441328       202.4888 
 185   0.0000       7.513677       204.4575 
 186   0.0000      14.678868       399.4323 
 187   0.0000      23.463476       638.4736 
 188   0.0000      43.718738      1189.6474 
 189   0.0000      43.986306      1196.9282 
 190   0.0000      44.013756      1197.6752 

                    ********************************
                    * MULLIKEN POPULATION ANALYSIS *
                    ********************************

-----------------------
MULLIKEN ATOMIC CHARGES
-----------------------
   0 C :    0.205467
   1 O :   -0.511476
   2 O :   -0.466242
   3 B :   -0.122555
   4 H :   -0.002781
   5 H :    0.020212
   6 H :   -0.031077
   7 H :   -0.064755
   8 O :   -0.673184
   9 H :    0.362435
  10 H :    0.283955
Sum of atomic charges:   -1.0000000

--------------------------------
MULLIKEN REDUCED ORBITAL CHARGES
--------------------------------
  0 C s       :     3.117145  s :     3.117145
      pz      :     0.887209  p :     2.410419
      px      :     0.758080
      py      :     0.765131
      dz2     :     0.053366  d :     0.244918
      dxz     :     0.061780
      dyz     :     0.014114
      dx2y2   :     0.058267
      dxy     :     0.057391
      f0      :     0.002004  f :     0.022051
      f+1     :     0.005574
      f-1     :     0.001236
      f+2     :     0.003524
      f-2     :     0.002920
      f+3     :     0.003648
      f-3     :     0.003145
  1 O s       :     3.777032  s :     3.777032
      pz      :     1.681133  p :     4.706419
      px      :     1.473763
      py      :     1.551523
      dz2     :     0.003951  d :     0.026464
      dxz     :     0.008428
      dyz     :     0.004183
      dx2y2   :     0.004992
      dxy     :     0.004910
      f0      :     0.000141  f :     0.001561
      f+1     :     0.000275
      f-1     :     0.000076
      f+2     :     0.000282
      f-2     :     0.000296
      f+3     :     0.000267
      f-3     :     0.000223
  2 O s       :     3.755041  s :     3.755041
      pz      :     1.741282  p :     4.680763
      px      :     1.413431
      py      :     1.526051
      dz2     :     0.003587  d :     0.028644
      dxz     :     0.006687
      dyz     :     0.001710
      dx2y2   :     0.008277
      dxy     :     0.008382
      f0      :     0.000189  f :     0.001794
      f+1     :     0.000339
      f-1     :     0.000060
      f+2     :     0.000244
      f-2     :     0.000202
      f+3     :     0.000403
      f-3     :     0.000357
  3 B s       :     3.106152  s :     3.106152
      pz      :     0.170870  p :     1.942260
      px      :     0.920965
      py      :     0.850426
      dz2     :     0.012685  d :     0.069344
      dxz     :     0.011293
      dyz     :     0.007124
      dx2y2   :     0.022356
      dxy     :     0.015886
      f0      :     0.000447  f :     0.004798
      f+1     :     0.000908
      f-1     :     0.000371
      f+2     :     0.000210
      f-2     :     0.000565
      f+3     :     0.002203
      f-3     :     0.000095
  4 H s       :     0.993980  s :     0.993980
      pz      :     0.000925  p :     0.008801
      px      :     0.003058
      py      :     0.004817
  5 H s       :     0.970977  s :     0.970977
      pz      :     0.000797  p :     0.008811
      px      :     0.005954
      py      :     0.002059
  6 H s       :     1.022806  s :     1.022806
      pz      :     0.000479  p :     0.008271
      px      :     0.003283
      py      :     0.004510
  7 H s       :     1.047082  s :     1.047082
      pz      :     0.012545  p :     0.017673
      px      :     0.002846
      py      :     0.002283
  8 O s       :     3.793221  s :     3.793221
      pz      :     1.692756  p :     4.857622
      px      :     1.753204
      py      :     1.411662
      dz2     :     0.004201  d :     0.021258
      dxz     :     0.005879
      dyz     :     0.001267
      dx2y2   :     0.008468
      dxy     :     0.001443
      f0      :     0.000034  f :     0.001082
      f+1     :     0.000304
      f-1     :     0.000173
      f+2     :     0.000155
      f-2     :     0.000042
      f+3     :     0.000100
      f-3     :     0.000274
  9 H s       :     0.575347  s :     0.575347
      pz      :     0.027259  p :     0.062218
      px      :     0.025917
      py      :     0.009043
 10 H s       :     0.667979  s :     0.667979
      pz      :     0.014268  p :     0.048065
      px      :     0.015193
      py      :     0.018605


                     *******************************
                     * LOEWDIN POPULATION ANALYSIS *
                     *******************************

----------------------
LOEWDIN ATOMIC CHARGES
----------------------
   0 C :   -0.652219
   1 O :   -0.112208
   2 O :   -0.075072
   3 B :   -0.308709
   4 H :    0.028198
   5 H :    0.032789
   6 H :    0.023834
   7 H :    0.095360
   8 O :   -0.305651
   9 H :    0.138791
  10 H :    0.134886

-------------------------------
LOEWDIN REDUCED ORBITAL CHARGES
-------------------------------
  0 C s       :     2.852949  s :     2.852949
      pz      :     0.943868  p :     2.721610
      px      :     0.976142
      py      :     0.801601
      dz2     :     0.211760  d :     0.936874
      dxz     :     0.253504
      dyz     :     0.055731
      dx2y2   :     0.205545
      dxy     :     0.210333
      f0      :     0.011926  f :     0.140785
      f+1     :     0.038425
      f-1     :     0.008673
      f+2     :     0.023572
      f-2     :     0.020052
      f+3     :     0.017206
      f-3     :     0.020931
  1 O s       :     3.430088  s :     3.430088
      pz      :     1.619523  p :     4.614075
      px      :     1.501575
      py      :     1.492977
      dz2     :     0.010073  d :     0.062911
      dxz     :     0.020568
      dyz     :     0.008429
      dx2y2   :     0.011386
      dxy     :     0.012455
      f0      :     0.000517  f :     0.005135
      f+1     :     0.001101
      f-1     :     0.000339
      f+2     :     0.000760
      f-2     :     0.001040
      f+3     :     0.000590
      f-3     :     0.000787
  2 O s       :     3.427752  s :     3.427752
      pz      :     1.634531  p :     4.579344
      px      :     1.500124
      py      :     1.444688
      dz2     :     0.008225  d :     0.062449
      dxz     :     0.018733
      dyz     :     0.002770
      dx2y2   :     0.017609
      dxy     :     0.015112
      f0      :     0.000631  f :     0.005526
      f+1     :     0.001055
      f-1     :     0.000158
      f+2     :     0.000909
      f-2     :     0.000541
      f+3     :     0.001042
      f-3     :     0.001191
  3 B s       :     2.906591  s :     2.906591
      pz      :     0.227714  p :     2.197171
      px      :     1.009938
      py      :     0.959519
      dz2     :     0.033368  d :     0.186137
      dxz     :     0.031657
      dyz     :     0.016879
      dx2y2   :     0.054910
      dxy     :     0.049322
      f0      :     0.001970  f :     0.018810
      f+1     :     0.005334
      f-1     :     0.001935
      f+2     :     0.001076
      f-2     :     0.002117
      f+3     :     0.006063
      f-3     :     0.000315
  4 H s       :     0.942610  s :     0.942610
      pz      :     0.002829  p :     0.029192
      px      :     0.009781
      py      :     0.016582
  5 H s       :     0.937230  s :     0.937230
      pz      :     0.001807  p :     0.029981
      px      :     0.021585
      py      :     0.006589
  6 H s       :     0.948405  s :     0.948405
      pz      :     0.001326  p :     0.027761
      px      :     0.010748
      py      :     0.015688
  7 H s       :     0.852894  s :     0.852894
      pz      :     0.036965  p :     0.051746
      px      :     0.007951
      py      :     0.006830
  8 O s       :     3.473409  s :     3.473409
      pz      :     1.648593  p :     4.799962
      px      :     1.688243
      py      :     1.463125
      dz2     :     0.006364  d :     0.030175
      dxz     :     0.008605
      dyz     :     0.000463
      dx2y2   :     0.013587
      dxy     :     0.001157
      f0      :     0.000019  f :     0.002105
      f+1     :     0.000474
      f-1     :     0.000457
      f+2     :     0.000317
      f-2     :     0.000013
      f+3     :     0.000195
      f-3     :     0.000631
  9 H s       :     0.651312  s :     0.651312
      pz      :     0.097725  p :     0.209897
      px      :     0.087753
      py      :     0.024419
 10 H s       :     0.702761  s :     0.702761
      pz      :     0.039391  p :     0.162353
      px      :     0.042027
      py      :     0.080935


                      *****************************
                      * MAYER POPULATION ANALYSIS *
                      *****************************

  NA   - Mulliken gross atomic population
  ZA   - Total nuclear charge
  QA   - Mulliken gross atomic charge
  VA   - Mayer's total valence
  BVA  - Mayer's bonded valence
  FA   - Mayer's free valence

  ATOM       NA         ZA         QA         VA         BVA        FA
  0 C      5.7945     6.0000     0.2055     4.5239     4.5239    -0.0000
  1 O      8.5115     8.0000    -0.5115     1.8400     1.8400    -0.0000
  2 O      8.4662     8.0000    -0.4662     1.9891     1.9891    -0.0000
  3 B      5.1226     5.0000    -0.1226     3.2303     3.2303    -0.0000
  4 H      1.0028     1.0000    -0.0028     0.9586     0.9586    -0.0000
  5 H      0.9798     1.0000     0.0202     0.9655     0.9655    -0.0000
  6 H      1.0311     1.0000    -0.0311     0.9781     0.9781    -0.0000
  7 H      1.0648     1.0000    -0.0648     0.9223     0.9223    -0.0000
  8 O      8.6732     8.0000    -0.6732     1.8001     1.8001    -0.0000
  9 H      0.6376     1.0000     0.3624     0.9534     0.9534     0.0000
 10 H      0.7160     1.0000     0.2840     0.9393     0.9393    -0.0000

  Mayer bond orders larger than 0.100000
B(  0-C ,  1-O ) :   1.6218 B(  0-C ,  2-O ) :   1.9388 B(  0-C ,  7-H ) :   0.9030 
B(  1-O ,  9-H ) :   0.2077 B(  3-B ,  4-H ) :   0.9882 B(  3-B ,  5-H ) :   0.9982 
B(  3-B ,  6-H ) :   0.9955 B(  3-B ,  8-O ) :   0.1482 B(  8-O ,  9-H ) :   0.7449 
B(  8-O , 10-H ) :   0.9269 

-------
TIMINGS
-------

Total SCF time: 0 days 0 hours 0 min 36 sec 

Total time                  ....      36.050 sec
Sum of individual times     ....      35.733 sec  ( 99.1%)

Fock matrix formation       ....      34.144 sec  ( 94.7%)
  XC integration            ....       2.648 sec  (  7.8% of F)
    Basis function eval.    ....       0.642 sec  ( 24.3% of XC)
    Density eval.           ....       0.388 sec  ( 14.7% of XC)
    XC-Functional eval.     ....       0.283 sec  ( 10.7% of XC)
    XC-Potential eval.      ....       0.577 sec  ( 21.8% of XC)
Diagonalization             ....       0.042 sec  (  0.1%)
Density matrix formation    ....       0.022 sec  (  0.1%)
Population analysis         ....       0.004 sec  (  0.0%)
Initial guess               ....       0.239 sec  (  0.7%)
Orbital Transformation      ....       0.000 sec  (  0.0%)
Orbital Orthonormalization  ....       0.000 sec  (  0.0%)
DIIS solution               ....       0.009 sec  (  0.0%)
SOSCF solution              ....       0.022 sec  (  0.1%)
Grid generation             ....       1.251 sec  (  3.5%)


-------------------------------------------------------------------------------
                          DFT DISPERSION CORRECTION                            
                                                                               
                              DFTD3 V3.1  Rev 1                                
                          USING Becke-Johnson damping                          
-------------------------------------------------------------------------------
The WB97X-D3BJ functional is recognized
Active option DFTDOPT                   ...         4   

molecular C6(AA) [au] = 987.091440 


            DFT-D V3
 parameters
 s6 scaling factor         :     1.0000 
 a1 scaling factor         :     0.0000 
 s8 scaling factor         :     0.2641 
 a2 scaling factor         :     5.4959 
 ad hoc parameters k1-k3   :    16.0000     1.3333    -4.0000 

 Edisp/kcal,au: -6.316807699805  -0.010066472758 
 E6   /kcal   :  -5.386484277 
 E8   /kcal   :  -0.930323423 
 % E8         :  14.727746472 

-------------------------   ----------------
Dispersion correction           -0.010066473
-------------------------   ----------------


-------------------------   --------------------
FINAL SINGLE POINT ENERGY      -292.467861670037
-------------------------   --------------------


                            ***************************************
                            *     ORCA property calculations      *
                            ***************************************

                                    ---------------------
                                    Active property flags
                                    ---------------------
   (+) Dipole Moment


------------------------------------------------------------------------------
                       ORCA ELECTRIC PROPERTIES CALCULATION
------------------------------------------------------------------------------

Dipole Moment Calculation                       ... on
Quadrupole Moment Calculation                   ... off
Polarizability Calculation                      ... off
GBWName                                         ... example-calculations-ts.gbw
Electron density file                           ... example-calculations-ts.scfp
The origin for moment calculation is the CENTER OF MASS  = ( 0.554783, -0.174668  6.230389)

-------------
DIPOLE MOMENT
-------------
                                X             Y             Z
Electronic contribution:      2.49295      -0.35234      -5.44002
Nuclear contribution   :     -3.17786       0.74485       6.24838
                        -----------------------------------------
Total Dipole Moment    :     -0.68491       0.39250       0.80836
                        -----------------------------------------
Magnitude (a.u.)       :      1.12987
Magnitude (Debye)      :      2.87190



--------------------
Rotational spectrum 
--------------------
 
Rotational constants in cm-1:     0.183114     0.081559     0.057740 
Rotational constants in MHz :  5489.617430  2445.071520  1731.004562 

 Dipole components along the rotational axes: 
x,y,z [a.u.] :    -0.999009     0.254984    -0.462137 
x,y,z [Debye]:    -2.539279     0.648117    -1.174658 

 

Timings for individual modules:

Sum of individual times         ...       38.265 sec (=   0.638 min)
GTO integral calculation        ...        1.251 sec (=   0.021 min)   3.3 %
SCF iterations                  ...       37.015 sec (=   0.617 min)  96.7 %
                             ****ORCA TERMINATED NORMALLY****
TOTAL RUN TIME: 0 days 0 hours 0 minutes 39 seconds 98 msec
