17
Energy:   -322.27034490
    O      1.31895373      2.09401053     -0.50524627
  qLP      1.41887273      2.20539640     -0.51570490
    H      1.47900450      2.66917409     -1.25344576
    H      1.93944656      2.38896703      0.16125291
    O      0.97593886     -1.32768793      1.36652814
  qLP      1.01703987     -1.42122320      1.47635464
    H      1.80175948     -1.33616437      1.85044992
    H      0.47118962     -2.04988697      1.74054498
    O     -0.27647688     -1.48242626     -1.85059782
  qLP     -0.28890555     -1.61601464     -1.91767744
    H     -1.07871801     -1.96231677     -2.05637953
    H      0.42867440     -2.04609656     -2.16882622
    O     -2.04501442      0.82622895      0.80698039
  qLP     -2.16022409      0.87140949      0.89174741
    H     -2.53636002      1.64492696      0.73956446
    H     -2.45365959      0.36047067      1.53657630
   Na     -0.01152120      0.18123257     -0.30212122
